
                                 *****************
                                 * O   R   C   A *
                                 *****************

                                            #,                                       
                                            ###                                      
                                            ####                                     
                                            #####                                    
                                            ######                                   
                                           ########,                                 
                                     ,,################,,,,,                         
                               ,,#################################,,                 
                          ,,##########################################,,             
                       ,#########################################, ''#####,          
                    ,#############################################,,   '####,        
                  ,##################################################,,,,####,       
                ,###########''''           ''''###############################       
              ,#####''   ,,,,##########,,,,          '''####'''          '####       
            ,##' ,,,,###########################,,,                        '##       
           ' ,,###''''                  '''############,,,                           
         ,,##''                                '''############,,,,        ,,,,,,###''
      ,#''                                            '''#######################'''  
     '                                                          ''''####''''         
             ,#######,   #######,   ,#######,      ##                                
            ,#'     '#,  ##    ##  ,#'     '#,    #''#        ######   ,####,        
            ##       ##  ##   ,#'  ##            #'  '#       #        #'  '#        
            ##       ##  #######   ##           ,######,      #####,   #    #        
            '#,     ,#'  ##    ##  '#,     ,#' ,#      #,         ##   #,  ,#        
             '#######'   ##     ##  '#######'  #'      '#     #####' # '####'        



                  #######################################################
                  #                        -***-                        #
                  #          Department of theory and spectroscopy      #
                  #    Directorship and core code : Frank Neese         #
                  #        Max Planck Institute fuer Kohlenforschung    #
                  #                Kaiser Wilhelm Platz 1               #
                  #                 D-45470 Muelheim/Ruhr               #
                  #                      Germany                        #
                  #                                                     #
                  #                  All rights reserved                #
                  #                        -***-                        #
                  #######################################################


                         Program Version 5.0.4 -  RELEASE  -


 With contributions from (in alphabetic order):
   Daniel Aravena         : Magnetic Suceptibility
   Michael Atanasov       : Ab Initio Ligand Field Theory (pilot matlab implementation)
   Alexander A. Auer      : GIAO ZORA, VPT2 properties, NMR spectrum
   Ute Becker             : Parallelization
   Giovanni Bistoni       : ED, misc. LED, open-shell LED, HFLD
   Martin Brehm           : Molecular dynamics
   Dmytro Bykov           : SCF Hessian
   Vijay G. Chilkuri      : MRCI spin determinant printing, contributions to CSF-ICE
   Dipayan Datta          : RHF DLPNO-CCSD density
   Achintya Kumar Dutta   : EOM-CC, STEOM-CC
   Dmitry Ganyushin       : Spin-Orbit,Spin-Spin,Magnetic field MRCI
   Miquel Garcia          : C-PCM and meta-GGA Hessian, CC/C-PCM, Gaussian charge scheme
   Yang Guo               : DLPNO-NEVPT2, F12-NEVPT2, CIM, IAO-localization
   Andreas Hansen         : Spin unrestricted coupled pair/coupled cluster methods
   Benjamin Helmich-Paris : MC-RPA, TRAH-SCF, COSX integrals
   Lee Huntington         : MR-EOM, pCC
   Robert Izsak           : Overlap fitted RIJCOSX, COSX-SCS-MP3, EOM
   Marcus Kettner         : VPT2
   Christian Kollmar      : KDIIS, OOCD, Brueckner-CCSD(T), CCSD density, CASPT2, CASPT2-K
   Simone Kossmann        : Meta GGA functionals, TD-DFT gradient, OOMP2, MP2 Hessian
   Martin Krupicka        : Initial AUTO-CI
   Lucas Lang             : DCDCAS
   Marvin Lechner         : AUTO-CI (C++ implementation), FIC-MRCC
   Dagmar Lenk            : GEPOL surface, SMD
   Dimitrios Liakos       : Extrapolation schemes; Compound Job, initial MDCI parallelization
   Dimitrios Manganas     : Further ROCIS development; embedding schemes
   Dimitrios Pantazis     : SARC Basis sets
   Anastasios Papadopoulos: AUTO-CI, single reference methods and gradients
   Taras Petrenko         : DFT Hessian,TD-DFT gradient, ASA, ECA, R-Raman, ABS, FL, XAS/XES, NRVS
   Peter Pinski           : DLPNO-MP2, DLPNO-MP2 Gradient
   Christoph Reimann      : Effective Core Potentials
   Marius Retegan         : Local ZFS, SOC
   Christoph Riplinger    : Optimizer, TS searches, QM/MM, DLPNO-CCSD(T), (RO)-DLPNO pert. Triples
   Tobias Risthaus        : Range-separated hybrids, TD-DFT gradient, RPA, STAB
   Michael Roemelt        : Original ROCIS implementation
   Masaaki Saitow         : Open-shell DLPNO-CCSD energy and density
   Barbara Sandhoefer     : DKH picture change effects
   Avijit Sen             : IP-ROCIS
   Kantharuban Sivalingam : CASSCF convergence, NEVPT2, FIC-MRCI
   Bernardo de Souza      : ESD, SOC TD-DFT
   Georgi Stoychev        : AutoAux, RI-MP2 NMR, DLPNO-MP2 response
   Willem Van den Heuvel  : Paramagnetic NMR
   Boris Wezisla          : Elementary symmetry handling
   Frank Wennmohs         : Technical directorship


 We gratefully acknowledge several colleagues who have allowed us to
 interface, adapt or use parts of their codes:
   Stefan Grimme, W. Hujo, H. Kruse, P. Pracht,  : VdW corrections, initial TS optimization,
                  C. Bannwarth, S. Ehlert          DFT functionals, gCP, sTDA/sTD-DF
   Ed Valeev, F. Pavosevic, A. Kumar             : LibInt (2-el integral package), F12 methods
   Garnet Chan, S. Sharma, J. Yang, R. Olivares  : DMRG
   Ulf Ekstrom                                   : XCFun DFT Library
   Mihaly Kallay                                 : mrcc  (arbitrary order and MRCC methods)
   Jiri Pittner, Ondrej Demel                    : Mk-CCSD
   Frank Weinhold                                : gennbo (NPA and NBO analysis)
   Christopher J. Cramer and Donald G. Truhlar   : smd solvation model
   Lars Goerigk                                  : TD-DFT with DH, B97 family of functionals
   V. Asgeirsson, H. Jonsson                     : NEB implementation
   FAccTs GmbH                                   : IRC, NEB, NEB-TS, DLPNO-Multilevel, CI-OPT
                                                   MM, QMMM, 2- and 3-layer-ONIOM, Crystal-QMMM,
                                                   LR-CPCM, SF, NACMEs, symmetry and pop. for TD-DFT,
                                                   nearIR, NL-DFT gradient (VV10), updates on ESD,
                                                   ML-optimized integration grids
   S Lehtola, MJT Oliveira, MAL Marques          : LibXC Library
   Liviu Ungur et al                             : ANISO software


 Your calculation uses the libint2 library for the computation of 2-el integrals
 For citations please refer to: http://libint.valeyev.net

 Your ORCA version has been built with support for libXC version: 5.1.0
 For citations please refer to: https://tddft.org/programs/libxc/

 This ORCA versions uses:
   CBLAS   interface :  Fast vector & matrix operations
   LAPACKE interface :  Fast linear algebra routines
   SCALAPACK package :  Parallel linear algebra routines
   Shared memory     :  Shared parallel matrices
   BLAS/LAPACK       :  OpenBLAS 0.3.15  USE64BITINT DYNAMIC_ARCH NO_AFFINITY SkylakeX SINGLE_THREADED
        Core in use  :  SkylakeX
   Copyright (c) 2011-2014, The OpenBLAS Project


Your calculation utilizes the atom-pairwise dispersion correction
based on tight binding partial charges (D4)
Cite in your paper:
E.Caldeweyher, C.Bannwarth, S.Grimme, J.Chem.Phys., (2017), 147, 034112.
E.Caldeweyher, S.Ehlert, A.Hansen, H.Neugebauer, S.Grimme, J.Chem.Phys., (2018), in progress.
   

XCFun DFT library Copyright 2009-2010 Ulf Ekstrom and contributors.
See http://admol.org/xcfun for more information.
This is free software; see the source code for copying conditions.
There is ABSOLUTELY NO WARRANTY; not even for MERCHANTABILITY or FITNESS FOR A PARTICULAR PURPOSE.
For details see the documentation.
Scientific users of this library should cite U. Ekstrom, L. Visscher, R. Bast, A. J. Thorvaldsen and K. Ruud;
J.Chem.Theor.Comp. 2010, DOI: 10.1021/ct100117s
XCFun Version 0.99 

================================================================================

----- Orbital basis set information -----
Your calculation utilizes the basis: def2-SVP
   F. Weigend and R. Ahlrichs, Phys. Chem. Chem. Phys. 7, 3297 (2005).

----- AuxJ basis set information -----
Your calculation utilizes the auxiliary basis: def2/J
   F. Weigend, Phys. Chem. Chem. Phys. 8, 1057 (2006).

================================================================================
                                        WARNINGS
                       Please study these warnings very carefully!
================================================================================


INFO   : the flag for use of the SHARK integral package has been found!

================================================================================
                                       INPUT FILE
================================================================================
NAME = wB97X_D4_SVP.inp
|  1> ! SP FREQ wB97X D4 Def2-SVP SlowConv TightSCF DEFGRID2 Def2/J RIJCOSX 
|  2> 
|  3> * xyz 0 1
|  4>    C       -1.70190        2.19121       -1.12777
|  5>    C       -0.25802        2.28131       -0.60402
|  6>    C       -0.50452        3.78226       -0.31786
|  7>    C       -1.95880        3.68019       -0.83762
|  8>    C       -2.40424        3.37936        0.60402
|  9>    H       -2.19163        4.52886       -1.51428
| 10>    C       -0.96035        3.46947        1.12778
| 11>    H        0.20191        4.59570       -0.58951
| 12>    C       -2.15773        1.87841        0.31787
| 13>    H       -2.17812        1.49219       -1.84675
| 14>    C       -0.70345        1.98049        0.83763
| 15>    H        0.71691        2.13661       -1.11481
| 16>    H       -2.86407        1.06490        0.58953
| 17>    H       -3.37918        3.52406        1.11479
| 18>    H       -0.48418        4.16852        1.84675
| 19>    H       -0.47063        1.13183        1.51431
| 20> **                         ****END OF INPUT****
================================================================================

                       ****************************
                       * Single Point Calculation *
                       ****************************

---------------------------------
CARTESIAN COORDINATES (ANGSTROEM)
---------------------------------
  C     -1.701900    2.191210   -1.127770
  C     -0.258020    2.281310   -0.604020
  C     -0.504520    3.782260   -0.317860
  C     -1.958800    3.680190   -0.837620
  C     -2.404240    3.379360    0.604020
  H     -2.191630    4.528860   -1.514280
  C     -0.960350    3.469470    1.127780
  H      0.201910    4.595700   -0.589510
  C     -2.157730    1.878410    0.317870
  H     -2.178120    1.492190   -1.846750
  C     -0.703450    1.980490    0.837630
  H      0.716910    2.136610   -1.114810
  H     -2.864070    1.064900    0.589530
  H     -3.379180    3.524060    1.114790
  H     -0.484180    4.168520    1.846750
  H     -0.470630    1.131830    1.514310

----------------------------
CARTESIAN COORDINATES (A.U.)
----------------------------
  NO LB      ZA    FRAG     MASS         X           Y           Z
   0 C     6.0000    0    12.011   -3.216125    4.140787   -2.131176
   1 C     6.0000    0    12.011   -0.487587    4.311051   -1.141432
   2 C     6.0000    0    12.011   -0.953405    7.147436   -0.600668
   3 C     6.0000    0    12.011   -3.701596    6.954551   -1.582872
   4 C     6.0000    0    12.011   -4.543355    6.386065    1.141432
   5 H     1.0000    0     1.008   -4.141580    8.558305   -2.861574
   6 C     6.0000    0    12.011   -1.814798    6.556348    2.131195
   7 H     1.0000    0     1.008    0.381555    8.684614   -1.114012
   8 C     6.0000    0    12.011   -4.077519    3.549680    0.600687
   9 H     1.0000    0     1.008   -4.116050    2.819830   -3.489852
  10 C     6.0000    0    12.011   -1.329328    3.742584    1.582891
  11 H     1.0000    0     1.008    1.354764    4.037608   -2.106686
  12 H     1.0000    0     1.008   -5.412308    2.012369    1.114050
  13 H     1.0000    0     1.008   -6.385725    6.659508    2.106648
  14 H     1.0000    0     1.008   -0.914968    7.877361    3.489852
  15 H     1.0000    0     1.008   -0.889362    2.138849    2.861631

--------------------------------
INTERNAL COORDINATES (ANGSTROEM)
--------------------------------
 C      0   0   0     0.000000000000     0.00000000     0.00000000
 C      1   0   0     1.538577761083     0.00000000     0.00000000
 C      2   1   0     1.547740513814    88.29615511     0.00000000
 C      1   2   3     1.538585737910    92.05314443   359.63782763
 C      4   1   2     1.538584210273    92.05279475   272.12903728
 H      4   1   2     1.110098794432   131.29386956   116.57555733
 C      5   4   1     1.538591135357    92.05287679    87.87094095
 H      3   2   1     1.111090320811   124.29912129   226.05220407
 C      1   2   3     1.547740236118    88.29609885   271.40458796
 H      1   2   3     1.110111115700   131.29438567   155.19210188
 C      7   5   4     1.538585737910    92.05275791   272.12909457
 H      2   1   3     1.110104958551   131.29315503   243.78690238
 H      9   1   2     1.111086797375   124.30316622   226.05641802
 H      5   4   1     1.110104538546   131.29186657   243.42505724
 H      7   5   4     1.110102081928   131.29186701   116.57386957
 H     11   7   5     1.110101243311   131.29271996   243.42498596

---------------------------
INTERNAL COORDINATES (A.U.)
---------------------------
 C      0   0   0     0.000000000000     0.00000000     0.00000000
 C      1   0   0     2.907490604189     0.00000000     0.00000000
 C      2   1   0     2.924805697482    88.29615511     0.00000000
 C      1   2   3     2.907505678207    92.05314443   359.63782763
 C      4   1   2     2.907502791391    92.05279475   272.12903728
 H      4   1   2     2.097782703073   131.29386956   116.57555733
 C      5   4   1     2.907515877904    92.05287679    87.87094095
 H      3   2   1     2.099656416384   124.29912129   226.05220407
 C      1   2   3     2.924805172714    88.29609885   271.40458796
 H      1   2   3     2.097805986894   131.29438567   155.19210188
 C      7   5   4     2.907505678207    92.05275791   272.12909457
 H      2   1   3     2.097794351570   131.29315503   243.78690238
 H      9   1   2     2.099649758054   124.30316622   226.05641802
 H      5   4   1     2.097793557875   131.29186657   243.42505724
 H      7   5   4     2.097788915539   131.29186701   116.57386957
 H     11   7   5     2.097787330783   131.29271996   243.42498596

---------------------
BASIS SET INFORMATION
---------------------
There are 2 groups of distinct atoms

 Group   1 Type C   : 7s4p1d contracted to 3s2p1d pattern {511/31/1}
 Group   2 Type H   : 4s1p contracted to 2s1p pattern {31/1}

Atom   0C    basis set group =>   1
Atom   1C    basis set group =>   1
Atom   2C    basis set group =>   1
Atom   3C    basis set group =>   1
Atom   4C    basis set group =>   1
Atom   5H    basis set group =>   2
Atom   6C    basis set group =>   1
Atom   7H    basis set group =>   2
Atom   8C    basis set group =>   1
Atom   9H    basis set group =>   2
Atom  10C    basis set group =>   1
Atom  11H    basis set group =>   2
Atom  12H    basis set group =>   2
Atom  13H    basis set group =>   2
Atom  14H    basis set group =>   2
Atom  15H    basis set group =>   2
---------------------------------
AUXILIARY/J BASIS SET INFORMATION
---------------------------------
There are 2 groups of distinct atoms

 Group   1 Type C   : 12s5p4d2f1g contracted to 6s4p3d1f1g pattern {711111/2111/211/2/1}
 Group   2 Type H   : 5s2p1d contracted to 3s1p1d pattern {311/2/1}

Atom   0C    basis set group =>   1
Atom   1C    basis set group =>   1
Atom   2C    basis set group =>   1
Atom   3C    basis set group =>   1
Atom   4C    basis set group =>   1
Atom   5H    basis set group =>   2
Atom   6C    basis set group =>   1
Atom   7H    basis set group =>   2
Atom   8C    basis set group =>   1
Atom   9H    basis set group =>   2
Atom  10C    basis set group =>   1
Atom  11H    basis set group =>   2
Atom  12H    basis set group =>   2
Atom  13H    basis set group =>   2
Atom  14H    basis set group =>   2
Atom  15H    basis set group =>   2
------------------------------------------------------------------------------
                           ORCA GTO INTEGRAL CALCULATION
                           -- RI-GTO INTEGRALS CHOSEN --
------------------------------------------------------------------------------
------------------------------------------------------------------------------
                   ___                                                        
                  /   \      - P O W E R E D   B Y -                         
                 /     \                                                     
                 |  |  |   _    _      __       _____    __    __             
                 |  |  |  | |  | |    /  \     |  _  \  |  |  /  |          
                  \  \/   | |  | |   /    \    | | | |  |  | /  /          
                 / \  \   | |__| |  /  /\  \   | |_| |  |  |/  /          
                |  |  |   |  __  | /  /__\  \  |    /   |      \           
                |  |  |   | |  | | |   __   |  |    \   |  |\   \          
                \     /   | |  | | |  |  |  |  | |\  \  |  | \   \       
                 \___/    |_|  |_| |__|  |__|  |_| \__\ |__|  \__/        
                                                                              
                      - O R C A' S   B I G   F R I E N D -                    
                                      &                                       
                       - I N T E G R A L  F E E D E R -                       
                                                                              
 v1 FN, 2020, v2 2021                                                         
------------------------------------------------------------------------------


Reading SHARK input file wB97X_D4_SVP.SHARKINP.tmp ... ok
----------------------
SHARK INTEGRAL PACKAGE
----------------------

Number of atoms                             ...     16
Number of basis functions                   ...    152
Number of shells                            ...     72
Maximum angular momentum                    ...      2
Integral batch strategy                     ... SHARK/LIBINT Hybrid
RI-J (if used) integral strategy            ... SPLIT-RIJ (Revised 2003 algorithm where possible)
Printlevel                                  ...      1
Contraction scheme used                     ... SEGMENTED contraction
Coulomb Range Separation                    ... NOT USED
Exchange Range Separation                   ... Long Range
   Mu parameter                             ...  0.300000
   Scaling (regular/separated)              ...  0.157706  0.842294
Finite Nucleus Model                        ... NOT USED
Auxiliary Coulomb fitting basis             ... AVAILABLE
   # of basis functions in Aux-J            ...    480
   # of shells in Aux-J                     ...    160
   Maximum angular momentum in Aux-J        ...      4
Auxiliary J/K fitting basis                 ... NOT available
Auxiliary Correlation fitting basis         ... NOT available
Auxiliary 'external' fitting basis          ... NOT available
Integral threshold                          ...     2.500000e-11
Primitive cut-off                           ...     2.500000e-12
Primitive pair pre-selection threshold      ...     2.500000e-12

Calculating pre-screening integrals         ... done (  0.0 sec) Dimension = 72
Organizing shell pair data                  ... done (  0.0 sec)
Shell pair information
Total number of shell pairs                 ...      2628
Shell pairs after pre-screening             ...      2600
Total number of primitive shell pairs       ...      9444
Primitive shell pairs kept                  ...      7370
          la=0 lb=0:    804 shell pairs
          la=1 lb=0:    952 shell pairs
          la=1 lb=1:    296 shell pairs
          la=2 lb=0:    320 shell pairs
          la=2 lb=1:    192 shell pairs
          la=2 lb=2:     36 shell pairs

Calculating one electron integrals          ... done (  0.0 sec)
Calculating RI/J V-Matrix + Cholesky decomp.... done (  0.2 sec)
Calculating Nuclear repulsion               ... done (  0.0 sec) ENN=    372.206867208765 Eh

SHARK setup successfully completed in   0.9 seconds

Maximum memory used throughout the entire GTOINT-calculation: 22.3 MB
-------------------------------------------------------------------------------
                                 ORCA SCF
-------------------------------------------------------------------------------

------------
SCF SETTINGS
------------
Hamiltonian:
 Density Functional     Method          .... DFT(GTOs)
 Exchange Functional    Exchange        .... WB97X
 Correlation Functional Correlation     .... WB97X
 Gradients option       PostSCFGGA      .... off
 Hybrid DFT is turned on
   Fraction HF Exchange ScalHFX         ....  0.157706
   Scaling of DF-GGA-X  ScalDFX         ....  0.000000
   Scaling of DF-GGA-C  ScalDFC         ....  1.000000
   Scaling of DF-LDA-C  ScalLDAC        ....  1.000000
   Perturbative correction              ....  0.000000
   Density functional embedding theory  .... OFF
 Long-range corrected/Screened/Range-Separated Hybrid DFT is turned on
   Amount of maximum screened exact exchange              ....  0.842294
   Range separation parameter mu (erf(mu*r12)/r12)        ....  0.300000
 RI-approximation to the Coulomb term is turned on
   Number of AuxJ basis functions       .... 480
   RIJ-COSX (HFX calculated with COS-X)).... on


General Settings:
 Integral files         IntName         .... wB97X_D4_SVP
 Hartree-Fock type      HFTyp           .... RHF
 Total Charge           Charge          ....    0
 Multiplicity           Mult            ....    1
 Number of Electrons    NEL             ....   56
 Basis Dimension        Dim             ....  152
 Nuclear Repulsion      ENuc            ....    372.2068672088 Eh

Convergence Acceleration:
 DIIS                   CNVDIIS         .... on
   Start iteration      DIISMaxIt       ....     0
   Startup error        DIISStart       ....  0.200000
   # of expansion vecs  DIISMaxEq       ....     5
   Bias factor          DIISBfac        ....   1.050
   Max. coefficient     DIISMaxC        ....  10.000
 Trust-Rad. Augm. Hess. CNVTRAH         .... auto
   Auto Start mean grad. ratio tolernc. ....  1.125000
   Auto Start start iteration           ....    20
   Auto Start num. interpolation iter.  ....    10
   Max. Number of Micro iterations      ....    16
   Max. Number of Macro iterations      .... Maxiter - #DIIS iter
   Number of Davidson start vectors     ....     2
   Converg. threshold I  (grad. norm)   ....   1.000e-05
   Converg. threshold II (energy diff.) ....   1.000e-08
   Grad. Scal. Fac. for Micro threshold ....   0.100
   Minimum threshold for Micro iter.    ....   0.010
   NR start threshold (gradient norm)   ....   0.001
   Initial trust radius                 ....   0.400
   Minimum AH scaling param. (alpha)    ....   1.000
   Maximum AH scaling param. (alpha)    .... 1000.000
   Orbital update algorithm             .... Taylor
   White noise on init. David. guess    .... on
   Maximum white noise                  ....   0.010
   Quad. conv. algorithm                .... NR
 SOSCF                  CNVSOSCF        .... on
   Start iteration      SOSCFMaxIt      ....   150
   Startup grad/error   SOSCFStart      ....  0.001000
 Level Shifting         CNVShift        .... on
   Level shift para.    LevelShift      ....    0.2500
   Turn off err/grad.   ShiftErr        ....    0.0000
 Zerner damping         CNVZerner       .... off
 Static damping         CNVDamp         .... on
   Fraction old density DampFac         ....    0.8500
   Max. Damping (<1)    DampMax         ....    0.9800
   Min. Damping (>=0)   DampMin         ....    0.0000
   Turn off err/grad.   DampErr         ....    0.0300
 Fernandez-Rico         CNVRico         .... off

SCF Procedure:
 Maximum # iterations   MaxIter         ....   125
 SCF integral mode      SCFMode         .... Direct
   Integral package                     .... SHARK and LIBINT hybrid scheme
 Reset frequency        DirectResetFreq ....    20
 Integral Threshold     Thresh          ....  2.500e-11 Eh
 Primitive CutOff       TCut            ....  2.500e-12 Eh

Convergence Tolerance:
 Convergence Check Mode ConvCheckMode   .... Total+1el-Energy
 Convergence forced     ConvForced      .... 0
 Energy Change          TolE            ....  1.000e-08 Eh
 1-El. energy change                    ....  1.000e-05 Eh
 Orbital Gradient       TolG            ....  1.000e-05
 Orbital Rotation angle TolX            ....  1.000e-05
 DIIS Error             TolErr          ....  5.000e-07


Diagonalization of the overlap matrix:
Smallest eigenvalue                        ... 2.210e-05
Time for diagonalization                   ...    0.008 sec
Threshold for overlap eigenvalues          ... 1.000e-08
Number of eigenvalues below threshold      ... 0
Time for construction of square roots      ...    0.024 sec
Total time needed                          ...    0.033 sec

Time for model grid setup =    0.168 sec

------------------------------
INITIAL GUESS: MODEL POTENTIAL
------------------------------
Loading Hartree-Fock densities                     ... done
Calculating cut-offs                               ... done
Initializing the effective Hamiltonian             ... done
Setting up the integral package (SHARK)            ... done
Starting the Coulomb interaction                   ... done (   0.3 sec)
Reading the grid                                   ... done
Mapping shells                                     ... done
Starting the XC term evaluation                    ... done (   0.2 sec)
  promolecular density results
     # of electrons  =     55.997628879
     EX              =    -43.352314117
     EC              =     -1.898960774
     EX+EC           =    -45.251274891
Transforming the Hamiltonian                       ... done (   0.0 sec)
Diagonalizing the Hamiltonian                      ... done (   0.0 sec)
Back transforming the eigenvectors                 ... done (   0.0 sec)
Now organizing SCF variables                       ... done
                      ------------------
                      INITIAL GUESS DONE (   0.7 sec)
                      ------------------
-------------------
DFT GRID GENERATION
-------------------

General Integration Accuracy     IntAcc      ... 4.388
Radial Grid Type                 RadialGrid  ... OptM3 with GC (2021)
Angular Grid (max. ang.)         AngularGrid ... 4 (Lebedev-302)
Angular grid pruning method      GridPruning ... 4 (adaptive)
Weight generation scheme         WeightScheme... Becke
Basis function cutoff            BFCut       ... 1.0000e-11
Integration weight cutoff        WCut        ... 1.0000e-14
Angular grids for H and He will be reduced by one unit
Partially contracted basis set               ... off
Rotationally invariant grid construction     ... off

Total number of grid points                  ...    73172
Total number of batches                      ...     1154
Average number of points per batch           ...       63
Average number of grid points per atom       ...     4573
Time for grid setup =    0.585 sec

--------------------
COSX GRID GENERATION
--------------------

GRIDX 1
-------
General Integration Accuracy     IntAcc      ... 3.816
Radial Grid Type                 RadialGrid  ... OptM3 with GC (2021)
Angular Grid (max. ang.)         AngularGrid ... 1 (Lebedev-50)
Angular grid pruning method      GridPruning ... 4 (adaptive)
Weight generation scheme         WeightScheme... Becke
Basis function cutoff            BFCut       ... 1.0000e-11
Integration weight cutoff        WCut        ... 1.0000e-14
Angular grids for H and He will be reduced by one unit
Partially contracted basis set               ... on
Rotationally invariant grid construction     ... off

Total number of grid points                  ...     9352
Total number of batches                      ...      156
Average number of points per batch           ...       59
Average number of grid points per atom       ...      584
UseSFitting                                  ... on

GRIDX 2
-------
General Integration Accuracy     IntAcc      ... 4.020
Radial Grid Type                 RadialGrid  ... OptM3 with GC (2021)
Angular Grid (max. ang.)         AngularGrid ... 2 (Lebedev-110)
Angular grid pruning method      GridPruning ... 4 (adaptive)
Weight generation scheme         WeightScheme... Becke
Basis function cutoff            BFCut       ... 1.0000e-11
Integration weight cutoff        WCut        ... 1.0000e-14
Angular grids for H and He will be reduced by one unit
Partially contracted basis set               ... on
Rotationally invariant grid construction     ... off

Total number of grid points                  ...    20166
Total number of batches                      ...      322
Average number of points per batch           ...       62
Average number of grid points per atom       ...     1260
UseSFitting                                  ... on

GRIDX 3
-------
General Integration Accuracy     IntAcc      ... 4.338
Radial Grid Type                 RadialGrid  ... OptM3 with GC (2021)
Angular Grid (max. ang.)         AngularGrid ... 3 (Lebedev-194)
Angular grid pruning method      GridPruning ... 4 (adaptive)
Weight generation scheme         WeightScheme... Becke
Basis function cutoff            BFCut       ... 1.0000e-11
Integration weight cutoff        WCut        ... 1.0000e-14
Angular grids for H and He will be reduced by one unit
Partially contracted basis set               ... on
Rotationally invariant grid construction     ... off

Total number of grid points                  ...    44098
Total number of batches                      ...      696
Average number of points per batch           ...       63
Average number of grid points per atom       ...     2756
UseSFitting                                  ... on

Time for X-Grid setup             =    0.795 sec

--------------
SCF ITERATIONS
--------------
ITER       Energy         Delta-E        Max-DP      RMS-DP      [F,P]     Damp
               ***  Starting incremental Fock matrix formation  ***
  0   -308.9980799168   0.000000000000 0.03748093  0.00189303  0.1057699 0.8500
  1   -309.0325318411  -0.034451924246 0.03580711  0.00187122  0.0826126 0.8500
                               ***Turning on DIIS***
  2   -309.0573165208  -0.024784679712 0.03050094  0.00155521  0.0604825 0.8500
  3   -309.0748583402  -0.017541819386 0.02476721  0.00118753  0.0434583 0.8500
  4   -309.0881638003  -0.013305460071 0.01961656  0.00092893  0.0337025 0.8500
  5   -309.0985801783  -0.010416378048 0.10862391  0.00511459  0.0275663 0.0000
  6   -309.1520365022  -0.053456323856 0.00366404  0.00016304  0.0022890 0.0000
                      *** Initiating the SOSCF procedure ***
                           *** Shutting down DIIS ***
                      *** Re-Reading the Fockian *** 
                      *** Removing any level shift *** 
ITER      Energy       Delta-E        Grad      Rot      Max-DP    RMS-DP
  7   -309.15211293  -0.0000764250  0.000368  0.000368  0.002082  0.000091
               *** Restarting incremental Fock matrix formation ***
  8   -309.15208622   0.0000267110  0.000150  0.000192  0.001029  0.000057
  9   -309.15208696  -0.0000007466  0.000043  0.000076  0.000468  0.000020
 10   -309.15208700  -0.0000000368  0.000036  0.000022  0.000141  0.000005
 11   -309.15208702  -0.0000000193  0.000004  0.000005  0.000148  0.000007
                  ***Gradient check signals convergence***
              ***Rediagonalizing the Fockian in SOSCF/NRSCF***

               *****************************************************
               *                     SUCCESS                       *
               *           SCF CONVERGED AFTER  12 CYCLES          *
               *****************************************************

Old exchange energy                            =    -14.347424713 Eh
New exchange energy                            =    -14.347391672 Eh
Exchange energy change after final integration =      0.000033041 Eh
Total energy after final integration           =   -309.152053974 Eh
Final COS-X integration done in                =    14.117 sec

----------------
TOTAL SCF ENERGY
----------------

Total Energy       :         -309.15205397 Eh           -8412.45507 eV

Components:
Nuclear Repulsion  :          372.20686721 Eh           10128.26377 eV
Electronic Energy  :         -681.35892118 Eh          -18540.71884 eV
One Electron Energy:        -1153.57333471 Eh          -31390.32629 eV
Two Electron Energy:          472.21441353 Eh           12849.60745 eV
Max COSX asymmetry :            0.00000361 Eh               0.00010 eV

Virial components:
Potential Energy   :         -614.71584269 Eh          -16727.26848 eV
Kinetic Energy     :          305.56378871 Eh            8314.81341 eV
Virial Ratio       :            2.01174310


DFT components:
N(Alpha)           :       27.999964589709 electrons
N(Beta)            :       27.999964589709 electrons
N(Total)           :       55.999929179419 electrons
E(XC)              :      -31.986294741497 Eh       
DFET-embed. en.    :        0.000000000000 Eh       

---------------
SCF CONVERGENCE
---------------

  Last Energy change         ...    3.6675e-09  Tolerance :   1.0000e-08
  Last MAX-Density change    ...    1.7764e-15  Tolerance :   1.0000e-07
  Last RMS-Density change    ...    4.3927e-17  Tolerance :   5.0000e-09
  Last Orbital Gradient      ...    1.3536e-06  Tolerance :   1.0000e-05
  Last Orbital Rotation      ...    1.4099e-06  Tolerance :   1.0000e-05

             **** THE GBW FILE WAS UPDATED (wB97X_D4_SVP.gbw) ****
             **** DENSITY wB97X_D4_SVP.scfp WAS UPDATED ****
             **** ENERGY FILE WAS UPDATED (wB97X_D4_SVP.en.tmp) ****
             **** THE GBW FILE WAS UPDATED (wB97X_D4_SVP.gbw) ****
             **** DENSITY wB97X_D4_SVP.scfp WAS UPDATED ****
----------------
ORBITAL ENERGIES
----------------

  NO   OCC          E(Eh)            E(eV) 
   0   2.0000     -10.271161      -279.4925 
   1   2.0000     -10.271133      -279.4917 
   2   2.0000     -10.271124      -279.4915 
   3   2.0000     -10.271101      -279.4909 
   4   2.0000     -10.271093      -279.4907 
   5   2.0000     -10.271051      -279.4895 
   6   2.0000     -10.261200      -279.2214 
   7   2.0000     -10.261171      -279.2207 
   8   2.0000      -1.105417       -30.0799 
   9   2.0000      -0.864111       -23.5137 
  10   2.0000      -0.864095       -23.5132 
  11   2.0000      -0.858734       -23.3673 
  12   2.0000      -0.678593       -18.4655 
  13   2.0000      -0.678583       -18.4652 
  14   2.0000      -0.663597       -18.0574 
  15   2.0000      -0.644373       -17.5343 
  16   2.0000      -0.559784       -15.2325 
  17   2.0000      -0.559776       -15.2323 
  18   2.0000      -0.557386       -15.1672 
  19   2.0000      -0.537876       -14.6363 
  20   2.0000      -0.537858       -14.6359 
  21   2.0000      -0.518988       -14.1224 
  22   2.0000      -0.392553       -10.6819 
  23   2.0000      -0.376905       -10.2561 
  24   2.0000      -0.376889       -10.2557 
  25   2.0000      -0.364989        -9.9319 
  26   2.0000      -0.350133        -9.5276 
  27   2.0000      -0.350106        -9.5269 
  28   0.0000       0.139057         3.7839 
  29   0.0000       0.144612         3.9351 
  30   0.0000       0.162385         4.4187 
  31   0.0000       0.162393         4.4189 
  32   0.0000       0.211619         5.7584 
  33   0.0000       0.211623         5.7586 
  34   0.0000       0.213132         5.7996 
  35   0.0000       0.219952         5.9852 
  36   0.0000       0.219960         5.9854 
  37   0.0000       0.245728         6.6866 
  38   0.0000       0.259365         7.0577 
  39   0.0000       0.285775         7.7763 
  40   0.0000       0.285784         7.7766 
  41   0.0000       0.292793         7.9673 
  42   0.0000       0.368597        10.0300 
  43   0.0000       0.405862        11.0441 
  44   0.0000       0.405877        11.0445 
  45   0.0000       0.421771        11.4770 
  46   0.0000       0.421798        11.4777 
  47   0.0000       0.470753        12.8098 
  48   0.0000       0.538132        14.6433 
  49   0.0000       0.538154        14.6439 
  50   0.0000       0.557595        15.1729 
  51   0.0000       0.557616        15.1735 
  52   0.0000       0.573919        15.6171 
  53   0.0000       0.589605        16.0440 
  54   0.0000       0.647870        17.6294 
  55   0.0000       0.647906        17.6304 
  56   0.0000       0.671129        18.2624 
  57   0.0000       0.698164        18.9980 
  58   0.0000       0.698168        18.9981 
  59   0.0000       0.701142        19.0790 
  60   0.0000       0.710939        19.3456 
  61   0.0000       0.723761        19.6945 
  62   0.0000       0.723768        19.6947 
  63   0.0000       0.748655        20.3719 
  64   0.0000       0.766192        20.8491 
  65   0.0000       0.777938        21.1688 
  66   0.0000       0.777961        21.1694 
  67   0.0000       0.792153        21.5556 
  68   0.0000       0.793714        21.5981 
  69   0.0000       0.793723        21.5983 
  70   0.0000       0.808242        21.9934 
  71   0.0000       0.820067        22.3152 
  72   0.0000       0.820137        22.3171 
  73   0.0000       0.868352        23.6291 
  74   0.0000       0.868364        23.6294 
  75   0.0000       0.921989        25.0886 
  76   0.0000       0.953643        25.9500 
  77   0.0000       0.975083        26.5333 
  78   0.0000       0.975109        26.5341 
  79   0.0000       1.079660        29.3790 
  80   0.0000       1.079693        29.3799 
  81   0.0000       1.084262        29.5043 
  82   0.0000       1.152597        31.3638 
  83   0.0000       1.152628        31.3646 
  84   0.0000       1.256246        34.1842 
  85   0.0000       1.332303        36.2538 
  86   0.0000       1.474673        40.1279 
  87   0.0000       1.474725        40.1293 
  88   0.0000       1.530205        41.6390 
  89   0.0000       1.604492        43.6604 
  90   0.0000       1.640680        44.6452 
  91   0.0000       1.640705        44.6458 
  92   0.0000       1.688736        45.9528 
  93   0.0000       1.688835        45.9555 
  94   0.0000       1.759898        47.8893 
  95   0.0000       1.759912        47.8896 
  96   0.0000       1.764317        48.0095 
  97   0.0000       1.765939        48.0536 
  98   0.0000       1.798598        48.9424 
  99   0.0000       1.821279        49.5595 
 100   0.0000       1.821334        49.5610 
 101   0.0000       1.838934        50.0399 
 102   0.0000       1.838958        50.0406 
 103   0.0000       1.913871        52.0791 
 104   0.0000       1.913892        52.0797 
 105   0.0000       1.927163        52.4408 
 106   0.0000       1.947764        53.0014 
 107   0.0000       1.947804        53.0024 
 108   0.0000       1.964920        53.4682 
 109   0.0000       1.983390        53.9708 
 110   0.0000       2.051265        55.8178 
 111   0.0000       2.100491        57.1573 
 112   0.0000       2.100535        57.1585 
 113   0.0000       2.118238        57.6402 
 114   0.0000       2.118258        57.6407 
 115   0.0000       2.136475        58.1365 
 116   0.0000       2.136503        58.1372 
 117   0.0000       2.153403        58.5971 
 118   0.0000       2.163541        58.8729 
 119   0.0000       2.186523        59.4983 
 120   0.0000       2.186530        59.4985 
 121   0.0000       2.227007        60.5999 
 122   0.0000       2.250262        61.2327 
 123   0.0000       2.250336        61.2348 
 124   0.0000       2.250441        61.2376 
 125   0.0000       2.254966        61.3608 
 126   0.0000       2.351355        63.9836 
 127   0.0000       2.351376        63.9842 
 128   0.0000       2.431188        66.1560 
 129   0.0000       2.431216        66.1568 
 130   0.0000       2.444254        66.5115 
 131   0.0000       2.605868        70.9093 
 132   0.0000       2.605911        70.9105 
 133   0.0000       2.626047        71.4584 
 134   0.0000       2.643074        71.9217 
 135   0.0000       2.646442        72.0134 
 136   0.0000       2.646470        72.0141 
 137   0.0000       2.720678        74.0334 
 138   0.0000       2.720687        74.0336 
 139   0.0000       2.821212        76.7691 
 140   0.0000       2.821223        76.7694 
 141   0.0000       2.905570        79.0646 
 142   0.0000       2.905586        79.0650 
 143   0.0000       2.931651        79.7743 
 144   0.0000       3.006322        81.8062 
 145   0.0000       3.034279        82.5669 
 146   0.0000       3.162952        86.0683 
 147   0.0000       3.162975        86.0689 
 148   0.0000       3.169727        86.2527 
 149   0.0000       3.249657        88.4276 
 150   0.0000       3.249683        88.4284 
 151   0.0000       3.614047        98.3432 

                    ********************************
                    * MULLIKEN POPULATION ANALYSIS *
                    ********************************

-----------------------
MULLIKEN ATOMIC CHARGES
-----------------------
   0 C :    0.025564
   1 C :    0.025340
   2 C :   -0.131101
   3 C :    0.024884
   4 C :    0.025298
   5 H :    0.012386
   6 C :    0.025603
   7 H :    0.018098
   8 C :   -0.131072
   9 H :    0.012508
  10 C :    0.024853
  11 H :    0.012325
  12 H :    0.018098
  13 H :    0.012328
  14 H :    0.012504
  15 H :    0.012385
Sum of atomic charges:    0.0000000

--------------------------------
MULLIKEN REDUCED ORBITAL CHARGES
--------------------------------
  0 C s       :     3.307898  s :     3.307898
      pz      :     0.864011  p :     2.618954
      px      :     0.888029
      py      :     0.866914
      dz2     :     0.009545  d :     0.047584
      dxz     :     0.009236
      dyz     :     0.008945
      dx2y2   :     0.010426
      dxy     :     0.009432
  1 C s       :     3.308231  s :     3.308231
      pz      :     0.875879  p :     2.618830
      px      :     0.822205
      py      :     0.920747
      dz2     :     0.010408  d :     0.047599
      dxz     :     0.011114
      dyz     :     0.007095
      dx2y2   :     0.012506
      dxy     :     0.006476
  2 C s       :     3.172265  s :     3.172265
      pz      :     0.949184  p :     2.912659
      px      :     0.976552
      py      :     0.986922
      dz2     :     0.009979  d :     0.046177
      dxz     :     0.008805
      dyz     :     0.008099
      dx2y2   :     0.010587
      dxy     :     0.008706
  3 C s       :     3.308756  s :     3.308756
      pz      :     0.859270  p :     2.618778
      px      :     0.913803
      py      :     0.845704
      dz2     :     0.009910  d :     0.047582
      dxz     :     0.008208
      dyz     :     0.010983
      dx2y2   :     0.011744
      dxy     :     0.006738
  4 C s       :     3.308253  s :     3.308253
      pz      :     0.875889  p :     2.618850
      px      :     0.822219
      py      :     0.920742
      dz2     :     0.010408  d :     0.047599
      dxz     :     0.011113
      dyz     :     0.007095
      dx2y2   :     0.012506
      dxy     :     0.006476
  5 H s       :     0.965399  s :     0.965399
      pz      :     0.007238  p :     0.022216
      px      :     0.004867
      py      :     0.010111
  6 C s       :     3.307881  s :     3.307881
      pz      :     0.863993  p :     2.618932
      px      :     0.888031
      py      :     0.866907
      dz2     :     0.009545  d :     0.047584
      dxz     :     0.009236
      dyz     :     0.008945
      dx2y2   :     0.010426
      dxy     :     0.009432
  7 H s       :     0.960426  s :     0.960426
      pz      :     0.003864  p :     0.021475
      px      :     0.008020
      py      :     0.009591
  8 C s       :     3.172272  s :     3.172272
      pz      :     0.949178  p :     2.912623
      px      :     0.976559
      py      :     0.986886
      dz2     :     0.009979  d :     0.046177
      dxz     :     0.008805
      dyz     :     0.008099
      dx2y2   :     0.010587
      dxy     :     0.008706
  9 H s       :     0.965281  s :     0.965281
      pz      :     0.008831  p :     0.022212
      px      :     0.005416
      py      :     0.007966
 10 C s       :     3.308756  s :     3.308756
      pz      :     0.859280  p :     2.618809
      px      :     0.913810
      py      :     0.845719
      dz2     :     0.009910  d :     0.047582
      dxz     :     0.008208
      dyz     :     0.010984
      dx2y2   :     0.011743
      dxy     :     0.006737
 11 H s       :     0.965460  s :     0.965460
      pz      :     0.005256  p :     0.022215
      px      :     0.012175
      py      :     0.004784
 12 H s       :     0.960426  s :     0.960426
      pz      :     0.003864  p :     0.021476
      px      :     0.008019
      py      :     0.009592
 13 H s       :     0.965457  s :     0.965457
      pz      :     0.005256  p :     0.022215
      px      :     0.012175
      py      :     0.004784
 14 H s       :     0.965284  s :     0.965284
      pz      :     0.008831  p :     0.022212
      px      :     0.005415
      py      :     0.007966
 15 H s       :     0.965399  s :     0.965399
      pz      :     0.007238  p :     0.022216
      px      :     0.004867
      py      :     0.010111


                     *******************************
                     * LOEWDIN POPULATION ANALYSIS *
                     *******************************

----------------------
LOEWDIN ATOMIC CHARGES
----------------------
   0 C :   -0.014144
   1 C :   -0.014073
   2 C :   -0.008366
   3 C :   -0.014108
   4 C :   -0.014072
   5 H :    0.013146
   6 C :   -0.014142
   7 H :    0.011240
   8 C :   -0.008366
   9 H :    0.013170
  10 C :   -0.014108
  11 H :    0.013134
  12 H :    0.011240
  13 H :    0.013134
  14 H :    0.013169
  15 H :    0.013145

-------------------------------
LOEWDIN REDUCED ORBITAL CHARGES
-------------------------------
  0 C s       :     2.856039  s :     2.856039
      pz      :     1.036567  p :     3.047081
      px      :     1.005054
      py      :     1.005460
      dz2     :     0.022380  d :     0.111024
      dxz     :     0.020757
      dyz     :     0.021271
      dx2y2   :     0.027699
      dxy     :     0.018917
  1 C s       :     2.856029  s :     2.856029
      pz      :     1.008117  p :     3.047001
      px      :     1.012598
      py      :     1.026286
      dz2     :     0.024776  d :     0.111044
      dxz     :     0.027587
      dyz     :     0.014331
      dx2y2   :     0.032079
      dxy     :     0.012271
  2 C s       :     2.854451  s :     2.854451
      pz      :     1.015739  p :     3.048753
      px      :     1.016353
      py      :     1.016660
      dz2     :     0.025247  d :     0.105161
      dxz     :     0.018882
      dyz     :     0.015314
      dx2y2   :     0.024705
      dxy     :     0.021013
  3 C s       :     2.856032  s :     2.856032
      pz      :     1.012998  p :     3.047053
      px      :     1.026665
      py      :     1.007390
      dz2     :     0.023097  d :     0.111023
      dxz     :     0.018734
      dyz     :     0.026712
      dx2y2   :     0.029265
      dxy     :     0.013215
  4 C s       :     2.856031  s :     2.856031
      pz      :     1.008120  p :     3.046998
      px      :     1.012599
      py      :     1.026280
      dz2     :     0.024776  d :     0.111043
      dxz     :     0.027585
      dyz     :     0.014331
      dx2y2   :     0.032080
      dxy     :     0.012271
  5 H s       :     0.917369  s :     0.917369
      pz      :     0.023110  p :     0.069485
      px      :     0.016653
      py      :     0.029722
  6 C s       :     2.856039  s :     2.856039
      pz      :     1.036569  p :     3.047080
      px      :     1.005047
      py      :     1.005465
      dz2     :     0.022380  d :     0.111023
      dxz     :     0.020756
      dyz     :     0.021272
      dx2y2   :     0.027699
      dxy     :     0.018916
  7 H s       :     0.919778  s :     0.919778
      pz      :     0.015414  p :     0.068981
      px      :     0.024966
      py      :     0.028601
  8 C s       :     2.854451  s :     2.854451
      pz      :     1.015739  p :     3.048754
      px      :     1.016354
      py      :     1.016660
      dz2     :     0.025246  d :     0.105161
      dxz     :     0.018882
      dyz     :     0.015314
      dx2y2   :     0.024705
      dxy     :     0.021013
  9 H s       :     0.917345  s :     0.917345
      pz      :     0.027439  p :     0.069485
      px      :     0.017835
      py      :     0.024211
 10 C s       :     2.856033  s :     2.856033
      pz      :     1.012994  p :     3.047052
      px      :     1.026671
      py      :     1.007386
      dz2     :     0.023097  d :     0.111023
      dxz     :     0.018734
      dyz     :     0.026713
      dx2y2   :     0.029265
      dxy     :     0.013214
 11 H s       :     0.917383  s :     0.917383
      pz      :     0.017995  p :     0.069483
      px      :     0.035251
      py      :     0.016237
 12 H s       :     0.919778  s :     0.919778
      pz      :     0.015415  p :     0.068982
      px      :     0.024964
      py      :     0.028603
 13 H s       :     0.917382  s :     0.917382
      pz      :     0.017994  p :     0.069483
      px      :     0.035252
      py      :     0.016237
 14 H s       :     0.917345  s :     0.917345
      pz      :     0.027439  p :     0.069486
      px      :     0.017834
      py      :     0.024213
 15 H s       :     0.917370  s :     0.917370
      pz      :     0.023111  p :     0.069485
      px      :     0.016653
      py      :     0.029721


                      *****************************
                      * MAYER POPULATION ANALYSIS *
                      *****************************

  NA   - Mulliken gross atomic population
  ZA   - Total nuclear charge
  QA   - Mulliken gross atomic charge
  VA   - Mayer's total valence
  BVA  - Mayer's bonded valence
  FA   - Mayer's free valence

  ATOM       NA         ZA         QA         VA         BVA        FA
  0 C      5.9744     6.0000     0.0256     3.7134     3.7134    -0.0000
  1 C      5.9747     6.0000     0.0253     3.7138     3.7138     0.0000
  2 C      6.1311     6.0000    -0.1311     3.6918     3.6918     0.0000
  3 C      5.9751     6.0000     0.0249     3.7134     3.7134     0.0000
  4 C      5.9747     6.0000     0.0253     3.7138     3.7138     0.0000
  5 H      0.9876     1.0000     0.0124     0.9914     0.9914     0.0000
  6 C      5.9744     6.0000     0.0256     3.7134     3.7134     0.0000
  7 H      0.9819     1.0000     0.0181     0.9863     0.9863    -0.0000
  8 C      6.1311     6.0000    -0.1311     3.6918     3.6918     0.0000
  9 H      0.9875     1.0000     0.0125     0.9914     0.9914    -0.0000
 10 C      5.9751     6.0000     0.0249     3.7135     3.7135    -0.0000
 11 H      0.9877     1.0000     0.0123     0.9914     0.9914     0.0000
 12 H      0.9819     1.0000     0.0181     0.9863     0.9863     0.0000
 13 H      0.9877     1.0000     0.0123     0.9914     0.9914     0.0000
 14 H      0.9875     1.0000     0.0125     0.9914     0.9914     0.0000
 15 H      0.9876     1.0000     0.0124     0.9914     0.9914     0.0000

  Mayer bond orders larger than 0.100000
B(  0-C ,  1-C ) :   0.9468 B(  0-C ,  3-C ) :   0.9465 B(  0-C ,  8-C ) :   0.9722 
B(  0-C ,  9-H ) :   1.0421 B(  1-C ,  2-C ) :   0.9721 B(  1-C , 10-C ) :   0.9465 
B(  1-C , 11-H ) :   1.0422 B(  2-C ,  3-C ) :   0.9719 B(  2-C ,  6-C ) :   0.9722 
B(  2-C ,  7-H ) :   0.9126 B(  3-C ,  4-C ) :   0.9465 B(  3-C ,  5-H ) :   1.0423 
B(  4-C ,  6-C ) :   0.9468 B(  4-C ,  8-C ) :   0.9721 B(  4-C , 13-H ) :   1.0422 
B(  6-C , 10-C ) :   0.9465 B(  6-C , 14-H ) :   1.0421 B(  8-C , 10-C ) :   0.9720 
B(  8-C , 12-H ) :   0.9126 B( 10-C , 15-H ) :   1.0422 

-------
TIMINGS
-------

Total SCF time: 0 days 0 hours 1 min 26 sec 

Total time                  ....      86.206 sec
Sum of individual times     ....      85.749 sec  ( 99.5%)

Fock matrix formation       ....      83.561 sec  ( 96.9%)
  Split-RI-J                ....       3.707 sec  (  4.4% of F)
  Chain of spheres X        ....      69.177 sec  ( 82.8% of F)
  XC integration            ....       9.589 sec  ( 11.5% of F)
    Basis function eval.    ....       3.167 sec  ( 33.0% of XC)
    Density eval.           ....       2.050 sec  ( 21.4% of XC)
    XC-Functional eval.     ....       1.421 sec  ( 14.8% of XC)
    XC-Potential eval.      ....       2.500 sec  ( 26.1% of XC)
Diagonalization             ....       0.065 sec  (  0.1%)
Density matrix formation    ....       0.007 sec  (  0.0%)
Population analysis         ....       0.007 sec  (  0.0%)
Initial guess               ....       0.489 sec  (  0.6%)
Orbital Transformation      ....       0.000 sec  (  0.0%)
Orbital Orthonormalization  ....       0.000 sec  (  0.0%)
DIIS solution               ....       0.048 sec  (  0.1%)
SOSCF solution              ....       0.023 sec  (  0.0%)
Grid generation             ....       1.549 sec  (  1.8%)

Maximum memory used throughout the entire SCF-calculation: 69.8 MB


-------------------------------------------------------------------------------
                          DFT DISPERSION CORRECTION                            
                                                                               
                                 DFTD4 V2.5                                    
-------------------------------------------------------------------------------
The WB97X functional is recognized
Active option DFTDOPT                   ...         5   

Starting D4
-------------------------   ----------------
Dispersion correction           -0.002129893
-------------------------   ----------------


-------------------------   --------------------
FINAL SINGLE POINT ENERGY      -309.154183867425
-------------------------   --------------------


                            ***************************************
                            *     ORCA property calculations      *
                            ***************************************

                                    ---------------------
                                    Active property flags
                                    ---------------------
   (+) Dipole Moment


------------------------------------------------------------------------------
                       ORCA ELECTRIC PROPERTIES CALCULATION
------------------------------------------------------------------------------

Dipole Moment Calculation                       ... on
Quadrupole Moment Calculation                   ... off
Polarizability Calculation                      ... off
GBWName                                         ... wB97X_D4_SVP.gbw
Electron density                                ... wB97X_D4_SVP.scfp
The origin for moment calculation is the CENTER OF MASS  = (-2.515464,  5.348562  0.000007)

-------------
DIPOLE MOMENT
-------------
                                X             Y             Z
Electronic contribution:     -0.00002       0.00003       0.00000
Nuclear contribution   :      0.00002      -0.00003      -0.00000
                        -----------------------------------------
Total Dipole Moment    :     -0.00000       0.00000       0.00000
                        -----------------------------------------
Magnitude (a.u.)       :      0.00000
Magnitude (Debye)      :      0.00001



--------------------
Rotational spectrum 
--------------------
 
Rotational constants in cm-1:     0.115646     0.115646     0.114897 
Rotational constants in MHz :  3466.974315  3466.973909  3444.524532 

 Dipole components along the rotational axes: 
x,y,z [a.u.] :    -0.000000     0.000003    -0.000002 
x,y,z [Debye]:    -0.000001     0.000008    -0.000004 

 

-------------------------------------------------------------------------------
                               ORCA SCF HESSIAN
-------------------------------------------------------------------------------

                   --------- SHARK INITIALIZATION DONE ---------

Hessian of the Kohn-Sham DFT energy:
Kohn-Sham wavefunction type                      ... RKS
Hartree-Fock exchange scaling                    ...    0.158
Number of operators                              ...    1
Number of atoms                                  ...   16
Basis set dimensions                             ...  152
Integral neglect threshold                       ... 2.5e-11
Integral primitive cutoff                        ... 2.5e-12

Setting up DFT Hessian calculations              ... 

HESS GRID
---------

General Integration Accuracy     IntAcc      ... 4.629
Radial Grid Type                 RadialGrid  ... OptM3 with GC (2021)
Angular Grid (max. ang.)         AngularGrid ... 5 (Lebedev-434)
Angular grid pruning method      GridPruning ... 4 (adaptive)
Weight generation scheme         WeightScheme... Becke
Basis function cutoff            BFCut       ... 1.0000e-11
Integration weight cutoff        WCut        ... 1.0000e-14
Angular grids for H and He will be reduced by one unit
Partially contracted basis set               ... off
Rotationally invariant grid construction     ... off

Total number of grid points                  ...   113247
Total number of batches                      ...     1776
Average number of points per batch           ...       63
Average number of grid points per atom       ...     7078

Building densities                               ... done   (      0.0 sec)
Calculating rho(r) on the grid                   ... done   (      0.6 sec)
Building xc-kernel on the grid                   ... done   (      0.6 sec)
                                                     done   (      2.3 sec)

Nuclear repulsion Hessian  (SHARK)               ... done   (      0.0 sec)

----------------------------------------------
Forming right-hand sides of CP-SCF equations     ...
----------------------------------------------
One electron integral derivatives  (SHARK)       ... done   (      0.1 sec)
Transforming the overlap derivative matrices     ... done   (      0.0 sec)
Making the Q(x) pseudodensities                  ... done   (      0.0 sec)
Adding the E*S(x)*S(y) terms to the Hessian      ... done   (      0.0 sec)
Calculating energy weighted overlap derivatives  ... done   (      0.0 sec)
Two electron integral derivatives (SHARK-RI)     ... done   (     18.8 sec)
Exchange-correlation integral derivatives        ... done   (     77.9 sec)
tr(F(y)Q(x)) contribution to the Hessian         ... done   (      0.0 sec)
Response fock operator R(S(x)) (SHARK-RIJCOSX)   ... done   (     14.4 sec)
XC Response fock operator R(S(x))                ... done   (     24.7 sec)
tr(F(y)S(x)) contribution to the Hessian         ... done   (      0.0 sec)
Transforming and finalizing RHSs                 ... done   (      0.1 sec)

----------------------------------------------
Solving the CP-SCF equations (RIJCOSX)           ...
----------------------------------------------
     CP-SCF ITERATION   0:   8.6330e-02 (   8.0 sec   0/ 48 done)
     CP-SCF ITERATION   1:   3.6214e-02 (   7.9 sec   0/ 48 done)
     CP-SCF ITERATION   2:   1.4442e-02 (   8.0 sec   0/ 48 done)
     CP-SCF ITERATION   3:   3.3646e-03 (   7.9 sec   0/ 48 done)
     CP-SCF ITERATION   4:   1.3288e-03 (   8.0 sec   0/ 48 done)
     CP-SCF ITERATION   5:   4.5204e-04 (   8.0 sec   0/ 48 done)
     CP-SCF ITERATION   6:   1.4963e-04 (   7.9 sec  24/ 48 done)
     CP-SCF ITERATION   7:   5.1030e-05 (   5.8 sec  48/ 48 done)
                    *** THE CP-SCF HAS CONVERGED ***

                                                 ... done   (     61.8 sec)
Forming perturbed density Hessian contributions  ... done   (      0.0 sec)
2nd integral derivative contribs (SHARK-RI)      ... done   (     92.2 sec)
Exchange-correlation Hessian                     ... done   (     43.7 sec)
Dispersion correction in the Hessian             ... Starting D4


------------------- 
Dispersion Gradient 
------------------- 
   1  :   -0.000007898   -0.000012876   -0.000019488
   2  :    0.000020346   -0.000008190   -0.000011222
   3  :    0.000017453    0.000020108   -0.000006697
   4  :   -0.000009790    0.000016606   -0.000015364
   5  :   -0.000020358    0.000008181    0.000011206
   6  :   -0.000001971    0.000002361   -0.000002417
   7  :    0.000007909    0.000012868    0.000019473
   8  :    0.000002465    0.000002840   -0.000000949
   9  :   -0.000017452   -0.000020097    0.000006711
  10  :   -0.000000959   -0.000001738   -0.000003366
  11  :    0.000009792   -0.000016603    0.000015378
  12  :    0.000003032   -0.000001759   -0.000001731
  13  :   -0.000002467   -0.000002841    0.000000951
  14  :   -0.000003036    0.000001759    0.000001732
  15  :    0.000000965    0.000001739    0.000003367
  16  :    0.000001970   -0.000002359    0.000002418

  |G| =    0.000059819

Starting D4


------------------- 
Dispersion Gradient 
------------------- 
   1  :   -0.000007919   -0.000012859   -0.000019457
   2  :    0.000020366   -0.000008190   -0.000011217
   3  :    0.000017438    0.000020072   -0.000006720
   4  :   -0.000009782    0.000016598   -0.000015354
   5  :   -0.000020354    0.000008198    0.000011232
   6  :   -0.000001971    0.000002357   -0.000002419
   7  :    0.000007908    0.000012867    0.000019472
   8  :    0.000002468    0.000002840   -0.000000948
   9  :   -0.000017439   -0.000020084    0.000006707
  10  :   -0.000000977   -0.000001740   -0.000003368
  11  :    0.000009781   -0.000016601    0.000015341
  12  :    0.000003039   -0.000001758   -0.000001730
  13  :   -0.000002465   -0.000002839    0.000000945
  14  :   -0.000003034    0.000001758    0.000001729
  15  :    0.000000970    0.000001739    0.000003368
  16  :    0.000001973   -0.000002359    0.000002419

  |G| =    0.000059784

Starting D4


------------------- 
Dispersion Gradient 
------------------- 
   1  :   -0.000007917   -0.000012867   -0.000019498
   2  :    0.000020360   -0.000008194   -0.000011225
   3  :    0.000017464    0.000020109   -0.000006694
   4  :   -0.000009786    0.000016593   -0.000015363
   5  :   -0.000020364    0.000008199    0.000011238
   6  :   -0.000001971    0.000002357   -0.000002417
   7  :    0.000007909    0.000012868    0.000019473
   8  :    0.000002466    0.000002839   -0.000000949
   9  :   -0.000017452   -0.000020100    0.000006709
  10  :   -0.000000967   -0.000001730   -0.000003366
  11  :    0.000009785   -0.000016609    0.000015354
  12  :    0.000003037   -0.000001758   -0.000001729
  13  :   -0.000002468   -0.000002841    0.000000952
  14  :   -0.000003035    0.000001757    0.000001730
  15  :    0.000000967    0.000001736    0.000003367
  16  :    0.000001972   -0.000002360    0.000002419

  |G| =    0.000059822

Starting D4


------------------- 
Dispersion Gradient 
------------------- 
   1  :   -0.000007900   -0.000012869   -0.000019448
   2  :    0.000020351   -0.000008185   -0.000011213
   3  :    0.000017427    0.000020072   -0.000006723
   4  :   -0.000009787    0.000016611   -0.000015355
   5  :   -0.000020348    0.000008180    0.000011200
   6  :   -0.000001972    0.000002362   -0.000002419
   7  :    0.000007908    0.000012867    0.000019472
   8  :    0.000002466    0.000002842   -0.000000948
   9  :   -0.000017438   -0.000020081    0.000006708
  10  :   -0.000000968   -0.000001748   -0.000003368
  11  :    0.000009788   -0.000016595    0.000015364
  12  :    0.000003034   -0.000001759   -0.000001732
  13  :   -0.000002465   -0.000002839    0.000000945
  14  :   -0.000003035    0.000001760    0.000001731
  15  :    0.000000968    0.000001742    0.000003368
  16  :    0.000001971   -0.000002359    0.000002417

  |G| =    0.000059781

Starting D4


------------------- 
Dispersion Gradient 
------------------- 
   1  :   -0.000007924   -0.000012893   -0.000019495
   2  :    0.000020359   -0.000008194   -0.000011229
   3  :    0.000017456    0.000020104   -0.000006711
   4  :   -0.000009791    0.000016605   -0.000015371
   5  :   -0.000020369    0.000008210    0.000011243
   6  :   -0.000001972    0.000002363   -0.000002417
   7  :    0.000007909    0.000012868    0.000019472
   8  :    0.000002466    0.000002840   -0.000000949
   9  :   -0.000017447   -0.000020094    0.000006697
  10  :   -0.000000969   -0.000001741   -0.000003361
  11  :    0.000009805   -0.000016606    0.000015392
  12  :    0.000003037   -0.000001758   -0.000001729
  13  :   -0.000002465   -0.000002839    0.000000948
  14  :   -0.000003035    0.000001758    0.000001729
  15  :    0.000000967    0.000001738    0.000003364
  16  :    0.000001971   -0.000002359    0.000002416

  |G| =    0.000059837

Starting D4


------------------- 
Dispersion Gradient 
------------------- 
   1  :   -0.000007893   -0.000012843   -0.000019451
   2  :    0.000020353   -0.000008185   -0.000011209
   3  :    0.000017435    0.000020077   -0.000006706
   4  :   -0.000009782    0.000016599   -0.000015348
   5  :   -0.000020343    0.000008170    0.000011195
   6  :   -0.000001971    0.000002356   -0.000002419
   7  :    0.000007908    0.000012867    0.000019473
   8  :    0.000002466    0.000002840   -0.000000948
   9  :   -0.000017444   -0.000020087    0.000006720
  10  :   -0.000000966   -0.000001737   -0.000003373
  11  :    0.000009767   -0.000016598    0.000015327
  12  :    0.000003033   -0.000001759   -0.000001732
  13  :   -0.000002467   -0.000002841    0.000000948
  14  :   -0.000003036    0.000001759    0.000001732
  15  :    0.000000968    0.000001740    0.000003371
  16  :    0.000001972   -0.000002359    0.000002420

  |G| =    0.000059766

Starting D4


------------------- 
Dispersion Gradient 
------------------- 
   1  :   -0.000007918   -0.000012863   -0.000019470
   2  :    0.000020332   -0.000008172   -0.000011197
   3  :    0.000017434    0.000020086   -0.000006703
   4  :   -0.000009763    0.000016580   -0.000015354
   5  :   -0.000020355    0.000008190    0.000011219
   6  :   -0.000001973    0.000002360   -0.000002418
   7  :    0.000007907    0.000012860    0.000019460
   8  :    0.000002467    0.000002836   -0.000000949
   9  :   -0.000017415   -0.000020084    0.000006691
  10  :   -0.000000968   -0.000001740   -0.000003368
  11  :    0.000009777   -0.000016594    0.000015358
  12  :    0.000003043   -0.000001758   -0.000001730
  13  :   -0.000002468   -0.000002840    0.000000949
  14  :   -0.000003039    0.000001759    0.000001731
  15  :    0.000000968    0.000001739    0.000003367
  16  :    0.000001973   -0.000002360    0.000002416

  |G| =    0.000059767

Starting D4


------------------- 
Dispersion Gradient 
------------------- 
   1  :   -0.000007899   -0.000012872   -0.000019476
   2  :    0.000020380   -0.000008208   -0.000011241
   3  :    0.000017458    0.000020094   -0.000006714
   4  :   -0.000009809    0.000016624   -0.000015364
   5  :   -0.000020357    0.000008189    0.000011219
   6  :   -0.000001969    0.000002359   -0.000002418
   7  :    0.000007911    0.000012875    0.000019485
   8  :    0.000002465    0.000002844   -0.000000948
   9  :   -0.000017475   -0.000020097    0.000006726
  10  :   -0.000000968   -0.000001738   -0.000003366
  11  :    0.000009795   -0.000016611    0.000015361
  12  :    0.000003026   -0.000001759   -0.000001730
  13  :   -0.000002465   -0.000002840    0.000000948
  14  :   -0.000003032    0.000001758    0.000001730
  15  :    0.000000968    0.000001739    0.000003367
  16  :    0.000001970   -0.000002359    0.000002420

  |G| =    0.000059836

Starting D4


------------------- 
Dispersion Gradient 
------------------- 
   1  :   -0.000007909   -0.000012872   -0.000019477
   2  :    0.000020374   -0.000008180   -0.000011229
   3  :    0.000017446    0.000020078   -0.000006710
   4  :   -0.000009810    0.000016616   -0.000015362
   5  :   -0.000020356    0.000008190    0.000011219
   6  :   -0.000001970    0.000002357   -0.000002418
   7  :    0.000007900    0.000012877    0.000019492
   8  :    0.000002466    0.000002837   -0.000000948
   9  :   -0.000017438   -0.000020099    0.000006704
  10  :   -0.000000970   -0.000001739   -0.000003368
  11  :    0.000009790   -0.000016608    0.000015363
  12  :    0.000003039   -0.000001751   -0.000001732
  13  :   -0.000002467   -0.000002841    0.000000949
  14  :   -0.000003034    0.000001756    0.000001730
  15  :    0.000000968    0.000001737    0.000003366
  16  :    0.000001970   -0.000002360    0.000002421

  |G| =    0.000059816

Starting D4


------------------- 
Dispersion Gradient 
------------------- 
   1  :   -0.000007909   -0.000012863   -0.000019468
   2  :    0.000020338   -0.000008200   -0.000011210
   3  :    0.000017445    0.000020102   -0.000006707
   4  :   -0.000009763    0.000016587   -0.000015356
   5  :   -0.000020356    0.000008190    0.000011219
   6  :   -0.000001972    0.000002361   -0.000002418
   7  :    0.000007917    0.000012858    0.000019453
   8  :    0.000002467    0.000002843   -0.000000948
   9  :   -0.000017453   -0.000020082    0.000006713
  10  :   -0.000000965   -0.000001739   -0.000003367
  11  :    0.000009783   -0.000016596    0.000015356
  12  :    0.000003032   -0.000001766   -0.000001729
  13  :   -0.000002465   -0.000002840    0.000000948
  14  :   -0.000003036    0.000001761    0.000001731
  15  :    0.000000967    0.000001741    0.000003368
  16  :    0.000001972   -0.000002359    0.000002415

  |G| =    0.000059787

Starting D4


------------------- 
Dispersion Gradient 
------------------- 
   1  :   -0.000007911   -0.000012874   -0.000019483
   2  :    0.000020378   -0.000008199   -0.000011216
   3  :    0.000017451    0.000020091   -0.000006712
   4  :   -0.000009782    0.000016600   -0.000015365
   5  :   -0.000020356    0.000008189    0.000011219
   6  :   -0.000001972    0.000002360   -0.000002419
   7  :    0.000007896    0.000012886    0.000019496
   8  :    0.000002466    0.000002842   -0.000000948
   9  :   -0.000017462   -0.000020094    0.000006711
  10  :   -0.000000971   -0.000001739   -0.000003368
  11  :    0.000009790   -0.000016602    0.000015350
  12  :    0.000003036   -0.000001759   -0.000001722
  13  :   -0.000002466   -0.000002840    0.000000947
  14  :   -0.000003034    0.000001758    0.000001728
  15  :    0.000000969    0.000001739    0.000003365
  16  :    0.000001972   -0.000002358    0.000002416

  |G| =    0.000059819

Starting D4


------------------- 
Dispersion Gradient 
------------------- 
   1  :   -0.000007906   -0.000012861   -0.000019462
   2  :    0.000020334   -0.000008180   -0.000011222
   3  :    0.000017440    0.000020090   -0.000006705
   4  :   -0.000009791    0.000016604   -0.000015353
   5  :   -0.000020356    0.000008190    0.000011219
   6  :   -0.000001970    0.000002359   -0.000002418
   7  :    0.000007921    0.000012848    0.000019448
   8  :    0.000002467    0.000002839   -0.000000949
   9  :   -0.000017428   -0.000020087    0.000006706
  10  :   -0.000000964   -0.000001739   -0.000003366
  11  :    0.000009783   -0.000016603    0.000015368
  12  :    0.000003034   -0.000001758   -0.000001738
  13  :   -0.000002466   -0.000002840    0.000000950
  14  :   -0.000003036    0.000001759    0.000001733
  15  :    0.000000967    0.000001740    0.000003369
  16  :    0.000001971   -0.000002361    0.000002420

  |G| =    0.000059785

Starting D4


------------------- 
Dispersion Gradient 
------------------- 
   1  :   -0.000007901   -0.000012849   -0.000019462
   2  :    0.000020344   -0.000008189   -0.000011213
   3  :    0.000017445    0.000020068   -0.000006701
   4  :   -0.000009797    0.000016597   -0.000015360
   5  :   -0.000020326    0.000008197    0.000011202
   6  :   -0.000001971    0.000002360   -0.000002419
   7  :    0.000007902    0.000012860    0.000019471
   8  :    0.000002473    0.000002838   -0.000000948
   9  :   -0.000017444   -0.000020089    0.000006708
  10  :   -0.000000969   -0.000001739   -0.000003367
  11  :    0.000009777   -0.000016600    0.000015357
  12  :    0.000003033   -0.000001752   -0.000001729
  13  :   -0.000002469   -0.000002841    0.000000949
  14  :   -0.000003037    0.000001758    0.000001730
  15  :    0.000000969    0.000001739    0.000003364
  16  :    0.000001971   -0.000002359    0.000002418

  |G| =    0.000059778

Starting D4


------------------- 
Dispersion Gradient 
------------------- 
   1  :   -0.000007916   -0.000012885   -0.000019483
   2  :    0.000020368   -0.000008190   -0.000011225
   3  :    0.000017446    0.000020112   -0.000006716
   4  :   -0.000009776    0.000016607   -0.000015358
   5  :   -0.000020385    0.000008182    0.000011236
   6  :   -0.000001972    0.000002358   -0.000002417
   7  :    0.000007915    0.000012875    0.000019474
   8  :    0.000002459    0.000002841   -0.000000949
   9  :   -0.000017447   -0.000020091    0.000006709
  10  :   -0.000000966   -0.000001739   -0.000003367
  11  :    0.000009795   -0.000016604    0.000015362
  12  :    0.000003037   -0.000001764   -0.000001732
  13  :   -0.000002463   -0.000002839    0.000000948
  14  :   -0.000003034    0.000001759    0.000001730
  15  :    0.000000966    0.000001739    0.000003371
  16  :    0.000001972   -0.000002359    0.000002418

  |G| =    0.000059826

Starting D4


------------------- 
Dispersion Gradient 
------------------- 
   1  :   -0.000007891   -0.000012849   -0.000019459
   2  :    0.000020352   -0.000008202   -0.000011218
   3  :    0.000017424    0.000020084   -0.000006700
   4  :   -0.000009787    0.000016591   -0.000015352
   5  :   -0.000020349    0.000008181    0.000011215
   6  :   -0.000001966    0.000002359   -0.000002415
   7  :    0.000007902    0.000012858    0.000019469
   8  :    0.000002464    0.000002846   -0.000000948
   9  :   -0.000017444   -0.000020088    0.000006708
  10  :   -0.000000968   -0.000001741   -0.000003367
  11  :    0.000009789   -0.000016576    0.000015339
  12  :    0.000003036   -0.000001757   -0.000001731
  13  :   -0.000002467   -0.000002844    0.000000949
  14  :   -0.000003035    0.000001758    0.000001731
  15  :    0.000000969    0.000001740    0.000003362
  16  :    0.000001971   -0.000002361    0.000002418

  |G| =    0.000059768

Starting D4


------------------- 
Dispersion Gradient 
------------------- 
   1  :   -0.000007927   -0.000012886   -0.000019486
   2  :    0.000020360   -0.000008178   -0.000011220
   3  :    0.000017468    0.000020097   -0.000006717
   4  :   -0.000009786    0.000016613   -0.000015366
   5  :   -0.000020363    0.000008198    0.000011223
   6  :   -0.000001977    0.000002359   -0.000002421
   7  :    0.000007915    0.000012877    0.000019476
   8  :    0.000002467    0.000002833   -0.000000949
   9  :   -0.000017446   -0.000020092    0.000006709
  10  :   -0.000000968   -0.000001737   -0.000003367
  11  :    0.000009783   -0.000016628    0.000015380
  12  :    0.000003034   -0.000001760   -0.000001730
  13  :   -0.000002465   -0.000002837    0.000000948
  14  :   -0.000003035    0.000001759    0.000001730
  15  :    0.000000967    0.000001738    0.000003372
  16  :    0.000001971   -0.000002358    0.000002418

  |G| =    0.000059836

Starting D4


------------------- 
Dispersion Gradient 
------------------- 
   1  :   -0.000007897   -0.000012853   -0.000019475
   2  :    0.000020361   -0.000008191   -0.000011223
   3  :    0.000017453    0.000020099   -0.000006693
   4  :   -0.000009790    0.000016607   -0.000015365
   5  :   -0.000020373    0.000008185    0.000011221
   6  :   -0.000001975    0.000002360   -0.000002420
   7  :    0.000007911    0.000012868    0.000019461
   8  :    0.000002467    0.000002841   -0.000000940
   9  :   -0.000017446   -0.000020091    0.000006710
  10  :   -0.000000968   -0.000001739   -0.000003368
  11  :    0.000009783   -0.000016623    0.000015366
  12  :    0.000003037   -0.000001761   -0.000001731
  13  :   -0.000002466   -0.000002840    0.000000946
  14  :   -0.000003035    0.000001759    0.000001729
  15  :    0.000000968    0.000001738    0.000003364
  16  :    0.000001972   -0.000002359    0.000002417

  |G| =    0.000059815

Starting D4


------------------- 
Dispersion Gradient 
------------------- 
   1  :   -0.000007920   -0.000012882   -0.000019470
   2  :    0.000020351   -0.000008188   -0.000011215
   3  :    0.000017438    0.000020082   -0.000006724
   4  :   -0.000009783    0.000016597   -0.000015353
   5  :   -0.000020339    0.000008194    0.000011217
   6  :   -0.000001967    0.000002358   -0.000002417
   7  :    0.000007907    0.000012867    0.000019484
   8  :    0.000002466    0.000002839   -0.000000956
   9  :   -0.000017445   -0.000020090    0.000006707
  10  :   -0.000000967   -0.000001739   -0.000003367
  11  :    0.000009790   -0.000016581    0.000015352
  12  :    0.000003034   -0.000001755   -0.000001730
  13  :   -0.000002467   -0.000002840    0.000000951
  14  :   -0.000003035    0.000001758    0.000001732
  15  :    0.000000968    0.000001740    0.000003371
  16  :    0.000001971   -0.000002359    0.000002420

  |G| =    0.000059788

Starting D4


------------------- 
Dispersion Gradient 
------------------- 
   1  :   -0.000007913   -0.000012867   -0.000019477
   2  :    0.000020379   -0.000008213   -0.000011214
   3  :    0.000017435    0.000020090   -0.000006712
   4  :   -0.000009780    0.000016619   -0.000015375
   5  :   -0.000020365    0.000008193    0.000011222
   6  :   -0.000001964    0.000002362   -0.000002420
   7  :    0.000007914    0.000012866    0.000019492
   8  :    0.000002464    0.000002839   -0.000000949
   9  :   -0.000017454   -0.000020087    0.000006705
  10  :   -0.000000967   -0.000001741   -0.000003367
  11  :    0.000009786   -0.000016602    0.000015359
  12  :    0.000003033   -0.000001757   -0.000001731
  13  :   -0.000002467   -0.000002841    0.000000949
  14  :   -0.000003036    0.000001757    0.000001734
  15  :    0.000000966    0.000001739    0.000003367
  16  :    0.000001969   -0.000002359    0.000002417

  |G| =    0.000059819

Starting D4


------------------- 
Dispersion Gradient 
------------------- 
   1  :   -0.000007905   -0.000012868   -0.000019468
   2  :    0.000020333   -0.000008166   -0.000011224
   3  :    0.000017456    0.000020091   -0.000006705
   4  :   -0.000009793    0.000016585   -0.000015344
   5  :   -0.000020347    0.000008186    0.000011216
[...]
     33       0.149931   0.082508   0.085048   0.004262   0.175988   0.068313
     34       0.179353  -0.099791   0.210144   0.382080  -0.027469   0.373209
     35       0.215046   0.193501   0.091392   0.015203   0.338828  -0.012318
     36      -0.284459  -0.348565   0.226323  -0.071126   0.014102   0.092537
     37       0.222519   0.174693  -0.318073  -0.107821  -0.006940   0.100436
     38      -0.077074  -0.365267  -0.366150   0.044089  -0.025121  -0.036683
     39       0.149815  -0.082828  -0.084968  -0.004357   0.175983   0.068297
     40       0.179589   0.099622  -0.210170  -0.381950  -0.027808   0.373242
     41       0.214758  -0.194051  -0.091231  -0.015446   0.338807  -0.012335
     42       0.320629   0.075231  -0.218071   0.166212  -0.270453   0.202722
     43      -0.232497  -0.185244   0.009935   0.134902   0.258511   0.176147
     44       0.016199   0.124390   0.127619  -0.321965  -0.071804  -0.278823
     45      -0.164271  -0.224290   0.102516  -0.343089   0.129271   0.343716
     46      -0.178935  -0.113362  -0.109834  -0.097953  -0.176416   0.161115
     47      -0.150687  -0.060904  -0.172661  -0.091189  -0.267533   0.056906
                 36         37         38         39         40         41    
      0       0.028080  -0.126407  -0.074135  -0.042980  -0.011633   0.005954
      1      -0.086940   0.074855  -0.032903   0.083657  -0.017037   0.008660
      2      -0.069364  -0.051111  -0.071940   0.025910  -0.017460   0.007568
      3      -0.022393   0.106187   0.104523   0.017001  -0.022958  -0.009755
      4       0.024163  -0.037025  -0.020910  -0.002659   0.003321   0.000305
      5       0.122086   0.093404   0.001762  -0.097566   0.012001   0.005017
      6       0.026242  -0.072160  -0.030944  -0.078147   0.024185   0.036853
      7      -0.051063   0.046719   0.056480   0.048263   0.027885   0.042408
      8      -0.084206  -0.050229   0.089267  -0.057696  -0.009299  -0.014169
      9      -0.046798   0.051346  -0.029914   0.026846   0.005634   0.001967
     10       0.081679  -0.071176   0.053040  -0.081044  -0.020821  -0.010944
     11       0.132871   0.050392   0.068069   0.071506   0.016587   0.008212
     12       0.022387  -0.106240   0.104461   0.016963  -0.022895   0.009822
     13      -0.024164   0.037043  -0.020901  -0.002651   0.003310  -0.000324
     14      -0.122075  -0.093332   0.001709  -0.097614   0.011962  -0.005054
     15       0.138690   0.071527   0.101972   0.191920  -0.076526  -0.037012
     16      -0.238926  -0.034019  -0.195956  -0.039564   0.245936   0.120738
     17      -0.331848   0.103711  -0.290521   0.086083  -0.199678  -0.097715
     18      -0.028067   0.126444  -0.074061  -0.042931  -0.011579  -0.005883
     19       0.086925  -0.074861  -0.032933   0.083635  -0.016955  -0.008557
     20       0.069363   0.051143  -0.071916   0.025936  -0.017369  -0.007449
     21      -0.089739   0.245729   0.120380   0.300024  -0.275538  -0.418612
     22       0.173401  -0.156312  -0.219784  -0.186658  -0.317393  -0.482175
     23       0.286502   0.167663  -0.344448   0.221940   0.106055   0.161101
     24      -0.026235   0.072222  -0.030918  -0.078119   0.024128  -0.036734
     25       0.051062  -0.046788   0.056469   0.048250   0.027823  -0.042280
     26       0.084210   0.050191   0.089289  -0.057663  -0.009281   0.014124
     27      -0.156187   0.307307   0.164247   0.243248   0.134639  -0.062388
     28       0.087153  -0.270540  -0.106815  -0.212075   0.199967  -0.092654
     29      -0.128361  -0.007359  -0.173546   0.132529   0.216439  -0.099462
     30       0.046795  -0.051329  -0.029935   0.026827   0.005635  -0.002001
     31      -0.081674   0.071179   0.053068  -0.081029  -0.020816   0.011031
     32      -0.132882  -0.050483   0.068043   0.071470   0.016577  -0.008289
     33      -0.183297  -0.116159  -0.023534   0.185614   0.274305   0.110262
     34       0.094185  -0.006467  -0.141328  -0.136277  -0.049221  -0.019075
     35      -0.190741  -0.350641  -0.229887   0.248839  -0.144597  -0.058073
     36       0.089717  -0.245993   0.120297   0.299964  -0.274902   0.417288
     37      -0.173360   0.156533  -0.219703  -0.186581  -0.316720   0.480742
     38      -0.286524  -0.167529  -0.344533   0.221835   0.105824  -0.160613
     39       0.183265   0.116058  -0.023473   0.185664   0.273504  -0.111112
     40      -0.094159   0.006632  -0.141320  -0.136289  -0.049075   0.019238
     41       0.190708   0.350614  -0.229707   0.248981  -0.144165   0.058522
     42       0.156134  -0.307482   0.164091   0.243136   0.133994   0.061555
     43      -0.087098   0.270643  -0.106676  -0.211956   0.199030   0.091427
     44       0.128355   0.007387  -0.173512   0.132558   0.215400   0.098106
     45      -0.138713  -0.071720   0.101951   0.191881  -0.076493   0.037358
     46       0.238963   0.034171  -0.195938  -0.039523   0.245826  -0.121808
     47       0.331862  -0.103548  -0.290553   0.086084  -0.199591   0.098597
                 42         43         44         45         46         47    
      0       0.018110   0.009121  -0.008323  -0.015883  -0.015102   0.014908
      1       0.024713   0.017295  -0.012640  -0.026316  -0.018851   0.022109
      2       0.028152   0.017397  -0.015668  -0.026400  -0.021231   0.023826
      3      -0.002790   0.042595  -0.016805  -0.006554   0.046143  -0.031813
      4       0.000527  -0.008000   0.004630   0.001016  -0.007490   0.005629
      5      -0.001268  -0.022586   0.009015   0.006225  -0.023764   0.016747
      6       0.000098  -0.000571  -0.031360   0.000232   0.000318  -0.015353
      7       0.000826  -0.002106  -0.036108  -0.000258   0.001170  -0.017677
      8      -0.001159   0.000018   0.012063   0.000560   0.000083   0.005907
      9      -0.010100   0.006225   0.006596  -0.010980   0.003012   0.008275
     10       0.031802  -0.018241  -0.016099   0.037487  -0.011923  -0.026891
     11      -0.027340   0.012266   0.013783  -0.029002   0.012393   0.021794
     12       0.002749  -0.042622  -0.016982  -0.006648   0.046029   0.031857
     13      -0.000529   0.007994   0.004670   0.001034  -0.007468  -0.005636
     14       0.001274   0.022593   0.009120   0.006287  -0.023697  -0.016766
     15       0.121554  -0.064651  -0.064163   0.129357  -0.044898  -0.091625
     16      -0.381228   0.201745   0.195803  -0.403701   0.141500   0.282115
     17       0.311683  -0.162566  -0.160334   0.327896  -0.118640  -0.230571
     18      -0.017981  -0.009046  -0.008462  -0.015973  -0.015137  -0.014964
     19      -0.024518  -0.017186  -0.012858  -0.026448  -0.018907  -0.022193
     20      -0.027938  -0.017268  -0.015893  -0.026546  -0.021290  -0.023914
     21      -0.006995   0.013779   0.351038   0.000289  -0.006456   0.159132
     22      -0.007907   0.015534   0.404258   0.001712  -0.009533   0.183267
     23       0.002459  -0.005347  -0.135084  -0.001814   0.001949  -0.061240
     24       0.000067   0.000778  -0.031525   0.000199   0.000263   0.015358
     25      -0.000635   0.002343  -0.036302  -0.000297   0.001108   0.017686
     26       0.001092  -0.000099   0.012134   0.000579   0.000107  -0.005908
     27      -0.202656  -0.125356   0.105109   0.182668   0.147241  -0.155090
     28      -0.300174  -0.189271   0.156812   0.275374   0.215441  -0.231361
     29      -0.329020  -0.205939   0.173596   0.300137   0.237688  -0.254974
     30       0.010128  -0.006233   0.006600  -0.010933   0.003037  -0.008274
     31      -0.031924   0.018236  -0.016100   0.037338  -0.012001   0.026886
     32       0.027424  -0.012273   0.013806  -0.028870   0.012465  -0.021785
     33       0.020719  -0.502048   0.202532   0.083132  -0.505410   0.335844
     34      -0.003854   0.093485  -0.039349  -0.015528   0.094605  -0.064139
     35      -0.008998   0.265102  -0.107075  -0.047093   0.266329  -0.177461
     36       0.005131  -0.016101   0.352902   0.000666  -0.005859  -0.159190
     37       0.005760  -0.018209   0.406483   0.002147  -0.008847  -0.183370
     38      -0.001732   0.006245  -0.135819  -0.001958   0.001721   0.061268
     39      -0.020371   0.502281   0.204670   0.084250  -0.504110  -0.336289
     40       0.003798  -0.093517  -0.039755  -0.015739   0.094359   0.064224
     41       0.008832  -0.265205  -0.108208  -0.047691   0.265626   0.177684
     42       0.201197   0.124496   0.106769   0.183725   0.147694   0.155698
     43       0.298031   0.188013   0.159310   0.276980   0.216144   0.232294
     44       0.326647   0.204536   0.176306   0.301876   0.238439   0.255982
     45      -0.121935   0.064671  -0.064205   0.128787  -0.045189   0.091593
     46       0.382456  -0.201779   0.195922  -0.401928   0.142405  -0.282016
     47      -0.312677   0.162612  -0.160453   0.326454  -0.119390   0.230492


-----------
IR SPECTRUM
-----------

 Mode   freq       eps      Int      T**2         TX        TY        TZ
       cm**-1   L/(mol*cm) km/mol    a.u.
----------------------------------------------------------------------------
  6:    608.72   0.000420    2.12  0.000215  ( 0.001583 -0.005880 -0.013356)
  7:    609.65   0.000407    2.06  0.000208  (-0.011088  0.007980 -0.004676)
  8:    617.79   0.000000    0.00  0.000000  (-0.000004  0.000003  0.000001)
  9:    717.64   0.000000    0.00  0.000000  (-0.000001 -0.000001 -0.000000)
 10:    718.21   0.000000    0.00  0.000000  (-0.000002 -0.000001  0.000001)
 11:    868.58   0.000007    0.03  0.000002  (-0.001332 -0.000435  0.000622)
 12:    869.13   0.000000    0.00  0.000000  ( 0.000001 -0.000002 -0.000000)
 13:    871.92   0.000000    0.00  0.000000  (-0.000004  0.000001  0.000001)
 14:    904.04   0.002300   11.62  0.000794  (-0.018229 -0.020480  0.006503)
 15:    930.44   0.002841   14.36  0.000953  ( 0.015787 -0.019809 -0.017637)
 16:    932.56   0.002893   14.62  0.000968  (-0.017322  0.007736 -0.024663)
 17:    934.85   0.000000    0.00  0.000000  (-0.000004 -0.000004 -0.000029)
 18:    952.03   0.000135    0.68  0.000044  (-0.005001  0.003006 -0.003195)
 19:    954.12   0.000089    0.45  0.000029  (-0.001754  0.003354  0.003829)
 20:    965.77   0.000071    0.36  0.000023  (-0.003146 -0.003521  0.000899)
 21:    993.63   0.000000    0.00  0.000000  (-0.000000  0.000000  0.000002)
 22:    995.19   0.000000    0.00  0.000000  ( 0.000001 -0.000000 -0.000001)
 23:   1101.38   0.000000    0.00  0.000000  ( 0.000002 -0.000000  0.000006)
 24:   1110.56   0.002105   10.64  0.000591  (-0.018632  0.015544 -0.001627)
 25:   1110.98   0.002157   10.90  0.000606  (-0.002626 -0.005630 -0.023818)
 26:   1154.00   0.000000    0.00  0.000000  (-0.000000  0.000000 -0.000000)
 27:   1154.76   0.000000    0.00  0.000000  ( 0.000000 -0.000001 -0.000001)
 28:   1208.35   0.000000    0.00  0.000000  ( 0.000001 -0.000001 -0.000001)
 29:   1239.46   0.001025    5.18  0.000258  (-0.000069  0.005468  0.015107)
 30:   1240.25   0.001025    5.18  0.000258  (-0.012261  0.009660 -0.003764)
 31:   1245.06   0.000000    0.00  0.000000  ( 0.000007 -0.000006  0.000003)
 32:   1245.69   0.000000    0.00  0.000000  (-0.000002  0.000001 -0.000002)
 33:   1252.72   0.000000    0.00  0.000000  (-0.000000  0.000003 -0.000000)
 34:   1261.86   0.000008    0.04  0.000002  ( 0.000998  0.000403 -0.000964)
 35:   1276.17   0.002199   11.11  0.000538  ( 0.014780  0.016839 -0.005967)
 36:   1337.63   0.000000    0.00  0.000000  (-0.000001  0.000001 -0.000001)
 37:   1338.44   0.000000    0.00  0.000000  (-0.000006  0.000005  0.000002)
 38:   1355.71   0.001712    8.65  0.000394  ( 0.005405 -0.010349 -0.016059)
 39:   1356.22   0.001702    8.60  0.000392  ( 0.014233 -0.008934  0.010452)
 40:   3028.32   0.000112    0.57  0.000012  (-0.001723 -0.002852  0.000654)
 41:   3036.17   0.000000    0.00  0.000000  ( 0.000056  0.000083 -0.000005)
 42:   3039.47   0.000000    0.00  0.000000  ( 0.000082  0.000073  0.000091)
 43:   3040.00   0.000000    0.00  0.000000  ( 0.000066  0.000095  0.000026)
 44:   3043.20   0.017703   89.46  0.001815  (-0.026116 -0.032196  0.009837)
 45:   3049.39   0.017406   87.96  0.001781  (-0.023288  0.008363 -0.034191)
 46:   3049.77   0.017387   87.87  0.001779  ( 0.023704 -0.026533 -0.022655)
 47:   3065.68   0.000000    0.00  0.000000  ( 0.000000 -0.000026 -0.000035)

* The epsilon (eps) is given for a Dirac delta lineshape.
** The dipole moment derivative (T) already includes vibrational overlap.

The first frequency considered to be a vibration is 6
The total number of vibrations considered is 42


--------------------------
THERMOCHEMISTRY AT 298.15K
--------------------------

Temperature         ... 298.15 K
Pressure            ... 1.00 atm
Total Mass          ... 104.15 AMU

Throughout the following assumptions are being made:
  (1) The electronic state is orbitally nondegenerate
  (2) There are no thermally accessible electronically excited states
  (3) Hindered rotations indicated by low frequency modes are not
      treated as such but are treated as vibrations and this may
      cause some error
  (4) All equations used are the standard statistical mechanics
      equations for an ideal gas
  (5) All vibrations are strictly harmonic

freq.     608.72  E(vib)   ...       0.10 
freq.     609.65  E(vib)   ...       0.10 
freq.     617.79  E(vib)   ...       0.09 
freq.     717.64  E(vib)   ...       0.07 
freq.     718.21  E(vib)   ...       0.07 
freq.     868.58  E(vib)   ...       0.04 
freq.     869.13  E(vib)   ...       0.04 
freq.     871.92  E(vib)   ...       0.04 
freq.     904.04  E(vib)   ...       0.03 
freq.     930.44  E(vib)   ...       0.03 
freq.     932.56  E(vib)   ...       0.03 
freq.     934.85  E(vib)   ...       0.03 
freq.     952.03  E(vib)   ...       0.03 
freq.     954.12  E(vib)   ...       0.03 
freq.     965.77  E(vib)   ...       0.03 
freq.     993.63  E(vib)   ...       0.02 
freq.     995.19  E(vib)   ...       0.02 
freq.    1101.38  E(vib)   ...       0.02 
freq.    1110.56  E(vib)   ...       0.02 
freq.    1110.98  E(vib)   ...       0.01 
freq.    1154.00  E(vib)   ...       0.01 
freq.    1154.76  E(vib)   ...       0.01 
freq.    1208.35  E(vib)   ...       0.01 
freq.    1239.46  E(vib)   ...       0.01 
freq.    1240.25  E(vib)   ...       0.01 
freq.    1245.06  E(vib)   ...       0.01 
freq.    1245.69  E(vib)   ...       0.01 
freq.    1252.72  E(vib)   ...       0.01 
freq.    1261.86  E(vib)   ...       0.01 
freq.    1276.17  E(vib)   ...       0.01 
freq.    1337.63  E(vib)   ...       0.01 
freq.    1338.44  E(vib)   ...       0.01 
freq.    1355.71  E(vib)   ...       0.01 
freq.    1356.22  E(vib)   ...       0.01 
freq.    3028.32  E(vib)   ...       0.00 
freq.    3036.17  E(vib)   ...       0.00 
freq.    3039.47  E(vib)   ...       0.00 
freq.    3040.00  E(vib)   ...       0.00 
freq.    3043.20  E(vib)   ...       0.00 
freq.    3049.39  E(vib)   ...       0.00 
freq.    3049.77  E(vib)   ...       0.00 
freq.    3065.68  E(vib)   ...       0.00 

------------
INNER ENERGY
------------

The inner energy is: U= E(el) + E(ZPE) + E(vib) + E(rot) + E(trans)
    E(el)   - is the total energy from the electronic structure calculation
              = E(kin-el) + E(nuc-el) + E(el-el) + E(nuc-nuc)
    E(ZPE)  - the the zero temperature vibrational energy from the frequency calculation
    E(vib)  - the the finite temperature correction to E(ZPE) due to population
              of excited vibrational states
    E(rot)  - is the rotational thermal energy
    E(trans)- is the translational thermal energy

Summary of contributions to the inner energy U:
Electronic energy                ...   -309.15418387 Eh
Zero point energy                ...      0.13620135 Eh      85.47 kcal/mol
Thermal vibrational correction   ...      0.00151664 Eh       0.95 kcal/mol
Thermal rotational correction    ...      0.00141627 Eh       0.89 kcal/mol
Thermal translational correction ...      0.00141627 Eh       0.89 kcal/mol
-----------------------------------------------------------------------
Total thermal energy                   -309.01363333 Eh


Summary of corrections to the electronic energy:
(perhaps to be used in another calculation)
Total thermal correction                  0.00434919 Eh       2.73 kcal/mol
Non-thermal (ZPE) correction              0.13620135 Eh      85.47 kcal/mol
-----------------------------------------------------------------------
Total correction                          0.14055054 Eh      88.20 kcal/mol


--------
ENTHALPY
--------

The enthalpy is H = U + kB*T
                kB is Boltzmann's constant
Total free energy                 ...   -309.01363333 Eh 
Thermal Enthalpy correction       ...      0.00094421 Eh       0.59 kcal/mol
-----------------------------------------------------------------------
Total Enthalpy                    ...   -309.01268912 Eh


Note: Rotational entropy computed according to Herzberg 
Infrared and Raman Spectra, Chapter V,1, Van Nostrand Reinhold, 1945 
Point Group:  C2, Symmetry Number:   2  
Rotational constants in cm-1:     0.115646     0.115646     0.114897 

Vibrational entropy computed according to the QRRHO of S. Grimme
Chem.Eur.J. 2012 18 9955


-------
ENTROPY
-------

The entropy contributions are T*S = T*(S(el)+S(vib)+S(rot)+S(trans))
     S(el)   - electronic entropy
     S(vib)  - vibrational entropy
     S(rot)  - rotational entropy
     S(trans)- translational entropy
The entropies will be listed as multiplied by the temperature to get
units of energy

Electronic entropy                ...      0.00000000 Eh      0.00 kcal/mol
Vibrational entropy               ...      0.00190513 Eh      1.20 kcal/mol
Rotational entropy                ...      0.01191463 Eh      7.48 kcal/mol
Translational entropy             ...      0.01892886 Eh     11.88 kcal/mol
-----------------------------------------------------------------------
Final entropy term                ...      0.03274862 Eh     20.55 kcal/mol

In case the symmetry of your molecule has not been determined correctly
or in case you have a reason to use a different symmetry number we print 
out the resulting rotational entropy values for sn=1,12 :
 --------------------------------------------------------
|  sn= 1 | S(rot)=       0.01256909 Eh      7.89 kcal/mol|
|  sn= 2 | S(rot)=       0.01191463 Eh      7.48 kcal/mol|
|  sn= 3 | S(rot)=       0.01153180 Eh      7.24 kcal/mol|
|  sn= 4 | S(rot)=       0.01126018 Eh      7.07 kcal/mol|
|  sn= 5 | S(rot)=       0.01104949 Eh      6.93 kcal/mol|
|  sn= 6 | S(rot)=       0.01087735 Eh      6.83 kcal/mol|
|  sn= 7 | S(rot)=       0.01073180 Eh      6.73 kcal/mol|
|  sn= 8 | S(rot)=       0.01060572 Eh      6.66 kcal/mol|
|  sn= 9 | S(rot)=       0.01049451 Eh      6.59 kcal/mol|
|  sn=10 | S(rot)=       0.01039503 Eh      6.52 kcal/mol|
|  sn=11 | S(rot)=       0.01030504 Eh      6.47 kcal/mol|
|  sn=12 | S(rot)=       0.01022289 Eh      6.41 kcal/mol|
 --------------------------------------------------------


-------------------
GIBBS FREE ENERGY
-------------------

The Gibbs free energy is G = H - T*S

Total enthalpy                    ...   -309.01268912 Eh 
Total entropy correction          ...     -0.03274862 Eh    -20.55 kcal/mol
-----------------------------------------------------------------------
Final Gibbs free energy         ...   -309.04543775 Eh

For completeness - the Gibbs free energy minus the electronic energy
G-E(el)                           ...      0.10874612 Eh     68.24 kcal/mol


Timings for individual modules:

Sum of individual times         ...      428.166 sec (=   7.136 min)
GTO integral calculation        ...        1.720 sec (=   0.029 min)   0.4 %
SCF iterations                  ...       86.912 sec (=   1.449 min)  20.3 %
Analytical frequency calculation...      339.535 sec (=   5.659 min)  79.3 %
                             ****ORCA TERMINATED NORMALLY****
TOTAL RUN TIME: 0 days 0 hours 7 minutes 10 seconds 386 msec
